title = "result"
variables = x, y, p, u, v, magU
ZONE I = 10, J = 10, F = Point

 4.500000000E-01  4.500000000E-01  2.299116360E+00 2.690353059E-01-1.248877693E-01 2.966090875E-01
 3.500000000E-01  4.500000000E-01  1.193278532E+00 3.882452336E-01-9.333751441E-02 3.993072163E-01
 2.500000000E-01  4.500000000E-01  5.393078145E-01 5.444213050E-01-4.949190452E-02 5.466662656E-01
 1.500000000E-01  4.500000000E-01  1.964529499E-01 6.293493451E-01-2.050946403E-02 6.296834414E-01
 5.000000000E-02  4.500000000E-01  7.844185034E-03 6.686833380E-01-3.726423772E-03 6.686937212E-01
-5.000000000E-02  4.500000000E-01 -1.325564726E-01 6.617849594E-01 9.553290864E-03 6.618539098E-01
-1.500000000E-01  4.500000000E-01 -2.736155347E-01 6.111079856E-01 2.670440527E-02 6.116911764E-01
-2.500000000E-01  4.500000000E-01 -5.250736273E-01 5.179125403E-01 5.528755731E-02 5.208551751E-01
-3.500000000E-01  4.500000000E-01 -1.066356995E+00 3.648667045E-01 9.572426261E-02 3.772145895E-01
-4.500000000E-01  4.500000000E-01 -2.080964683E+00 2.580758535E-01 1.222884665E-01 2.855829392E-01
 4.500000000E-01  3.500000000E-01  1.227720879E+00 6.176529237E-03-2.685839543E-01 2.686549646E-01
 3.500000000E-01  3.500000000E-01  7.504714860E-01 3.707454417E-02-2.932241230E-01 2.955586374E-01
 2.500000000E-01  3.500000000E-01  3.768332970E-01 1.280658728E-01-1.952073717E-01 2.334668836E-01
 1.500000000E-01  3.500000000E-01  1.381257596E-01 2.006755047E-01-9.987338540E-02 2.241547486E-01
 5.000000000E-02  3.500000000E-01 -1.307345995E-02 2.375594385E-01-2.228104651E-02 2.386020366E-01
-5.000000000E-02  3.500000000E-01 -1.292316047E-01 2.302342116E-01 4.754511687E-02 2.350921741E-01
-1.500000000E-01  3.500000000E-01 -2.440193907E-01 1.820086200E-01 1.182870727E-01 2.170690427E-01
-2.500000000E-01  3.500000000E-01 -4.138640975E-01 1.043684532E-01 2.001246056E-01 2.257047447E-01
-3.500000000E-01  3.500000000E-01 -7.005847011E-01 1.838309959E-02 2.822870750E-01 2.828850138E-01
-4.500000000E-01  3.500000000E-01 -1.101108134E+00-2.644239977E-03 2.504910528E-01 2.505050090E-01
 4.500000000E-01  2.500000000E-01  6.368209426E-01-2.484521161E-02-2.354992950E-01 2.368062552E-01
 3.500000000E-01  2.500000000E-01  4.677700786E-01-6.489518101E-02-3.093427043E-01 3.160764040E-01
 2.500000000E-01  2.500000000E-01  2.796302191E-01-5.867890314E-02-2.355649396E-01 2.427633713E-01
 1.500000000E-01  2.500000000E-01  1.149136976E-01-3.368532022E-02-1.328581599E-01 1.370619986E-01
 5.000000000E-02  2.500000000E-01 -1.650960200E-02-1.751070766E-02-3.316545224E-02 3.750429449E-02
-5.000000000E-02  2.500000000E-01 -1.252656827E-01-1.913177284E-02 6.034787921E-02 6.330790833E-02
-1.500000000E-01  2.500000000E-01 -2.277240878E-01-3.694680142E-02 1.494783109E-01 1.539767241E-01
-2.500000000E-01  2.500000000E-01 -3.396215042E-01-6.097509911E-02 2.326986887E-01 2.405548637E-01
-3.500000000E-01  2.500000000E-01 -4.671501908E-01-6.393805274E-02 2.864606005E-01 2.935093699E-01
-4.500000000E-01  2.500000000E-01 -5.912909015E-01-2.194466398E-02 2.101677078E-01 2.113102782E-01
 4.500000000E-01  1.500000000E-01  3.415962779E-01-2.103759191E-02-1.730493852E-01 1.743234637E-01
 3.500000000E-01  1.500000000E-01  2.779196331E-01-8.931517333E-02-2.652244109E-01 2.798592295E-01
 2.500000000E-01  1.500000000E-01  1.927145897E-01-1.243226509E-01-2.259606764E-01 2.579037588E-01
 1.500000000E-01  1.500000000E-01  8.908449593E-02-1.380554294E-01-1.383959455E-01 1.954807901E-01
 5.000000000E-02  1.500000000E-01 -9.621460837E-03-1.399255017E-01-3.780323523E-02 1.449421630E-01
-5.000000000E-02  1.500000000E-01 -9.659148917E-02-1.373779149E-01 6.172259429E-02 1.506066736E-01
-1.500000000E-01  1.500000000E-01 -1.732713335E-01-1.306354119E-01 1.512020712E-01 1.998191112E-01
-2.500000000E-01  1.500000000E-01 -2.409858900E-01-1.134260666E-01 2.213962223E-01 2.487604466E-01
-3.500000000E-01  1.500000000E-01 -2.892703379E-01-7.977393268E-02 2.444746412E-01 2.571609039E-01
-4.500000000E-01  1.500000000E-01 -3.287285010E-01-1.693407268E-02 1.553521958E-01 1.562724146E-01
 4.500000000E-01  5.000000000E-02  1.846268692E-01-1.495839571E-02-1.181714592E-01 1.191144297E-01
 3.500000000E-01  5.000000000E-02  1.631176579E-01-8.428369741E-02-2.037683378E-01 2.205113991E-01
 2.500000000E-01  5.000000000E-02  1.302653372E-01-1.342716306E-01-1.871022234E-01 2.302957073E-01
 1.500000000E-01  5.000000000E-02  6.771299750E-02-1.672307853E-01-1.195574149E-01 2.055726416E-01
 5.000000000E-02  5.000000000E-02  0.000000000E+00-1.806265551E-01-3.439186855E-02 1.838715666E-01
-5.000000000E-02  5.000000000E-02 -6.153838543E-02-1.767823437E-01 5.143088724E-02 1.841117411E-01
-1.500000000E-01  5.000000000E-02 -1.149934208E-01-1.573646901E-01 1.287400689E-01 2.033166276E-01
-2.500000000E-01  5.000000000E-02 -1.554444055E-01-1.213862033E-01 1.827483673E-01 2.193890975E-01
-3.500000000E-01  5.000000000E-02 -1.691175615E-01-7.392293438E-02 1.894383082E-01 2.033506156E-01
-4.500000000E-01  5.000000000E-02 -1.798957843E-01-1.248088340E-02 1.081253229E-01 1.088432722E-01
 4.500000000E-01 -5.000000000E-02  9.861924138E-02-1.016056645E-02-7.545538646E-02 7.613640691E-02
 3.500000000E-01 -5.000000000E-02  9.746514337E-02-6.898970120E-02-1.414498505E-01 1.573773779E-01
 2.500000000E-01 -5.000000000E-02  8.995713787E-02-1.202220340E-01-1.387819676E-01 1.836131041E-01
 1.500000000E-01 -5.000000000E-02  5.329741564E-02-1.590657698E-01-9.368640770E-02 1.846051519E-01
 5.000000000E-02 -5.000000000E-02  7.985329075E-03-1.772935596E-01-2.879693191E-02 1.796170080E-01
-5.000000000E-02 -5.000000000E-02 -3.469462615E-02-1.740870691E-01 3.986948314E-02 1.785941861E-01
-1.500000000E-01 -5.000000000E-02 -7.192149677E-02-1.508639501E-01 9.867095816E-02 1.802661627E-01
-2.500000000E-01 -5.000000000E-02 -9.602330367E-02-1.104266977E-01 1.355397201E-01 1.748286913E-01
-3.500000000E-01 -5.000000000E-02 -9.491566697E-02-6.171132712E-02 1.332136677E-01 1.468133821E-01
-4.500000000E-01 -5.000000000E-02 -9.264983637E-02-8.972652513E-03 7.087008376E-02 7.143582621E-02
 4.500000000E-01 -1.500000000E-01  5.518246873E-02-6.815606051E-03-4.396995012E-02 4.449504466E-02
 3.500000000E-01 -1.500000000E-01  6.194195602E-02-5.228473724E-02-8.882208190E-02 1.030682103E-01
 2.500000000E-01 -1.500000000E-01  6.547133453E-02-9.721992967E-02-9.183095698E-02 1.337334640E-01
 1.500000000E-01 -1.500000000E-01  4.467442515E-02-1.348281197E-01-6.359825581E-02 1.490750147E-01
 5.000000000E-02 -1.500000000E-01  1.315522011E-02-1.536131420E-01-2.009419419E-02 1.549218320E-01
-5.000000000E-02 -1.500000000E-01 -1.906301794E-02-1.515447396E-01 2.618443014E-02 1.537902223E-01
-1.500000000E-01 -1.500000000E-01 -4.563359595E-02-1.294931751E-01 6.621450194E-02 1.454401687E-01
-2.500000000E-01 -1.500000000E-01 -6.008899573E-02-9.121715768E-02 8.974072720E-02 1.279608064E-01
-3.500000000E-01 -1.500000000E-01 -5.340280176E-02-4.831215099E-02 8.459203305E-02 9.741599452E-02
-4.500000000E-01 -1.500000000E-01 -4.638800938E-02-6.366165706E-03 4.217343707E-02 4.265122343E-02
 4.500000000E-01 -2.500000000E-01  3.970314509E-02-4.486575837E-03-2.152316701E-02 2.198581545E-02
 3.500000000E-01 -2.500000000E-01  4.811993015E-02-3.704947450E-02-4.748680735E-02 6.023006254E-02
 2.500000000E-01 -2.500000000E-01  5.384262443E-02-7.270592252E-02-5.188789194E-02 8.932247477E-02
 1.500000000E-01 -2.500000000E-01  3.977008120E-02-1.045356823E-01-3.711531815E-02 1.109290571E-01
 5.000000000E-02 -2.500000000E-01  1.540470320E-02-1.211691908E-01-1.205165459E-02 1.217670529E-01
-5.000000000E-02 -2.500000000E-01 -1.082760136E-02-1.199103106E-01 1.529119050E-02 1.208813596E-01
-1.500000000E-01 -2.500000000E-01 -3.239934394E-02-1.014461216E-01 3.835356312E-02 1.084541903E-01
-2.500000000E-01 -2.500000000E-01 -4.323850896E-02-6.946677036E-02 5.067554254E-02 8.598629423E-02
-3.500000000E-01 -2.500000000E-01 -3.655266903E-02-3.517494307E-02 4.553105237E-02 5.753567024E-02
-4.500000000E-01 -2.500000000E-01 -2.880129503E-02-4.365500981E-03 2.093070713E-02 2.138111549E-02
 4.500000000E-01 -3.500000000E-01  4.295540257E-02-2.416143968E-03-7.628374446E-03 8.001865305E-03
 3.500000000E-01 -3.500000000E-01  5.144864847E-02-2.256209584E-02-1.936628973E-02 2.973384178E-02
 2.500000000E-01 -3.500000000E-01  5.561730607E-02-4.730018711E-02-2.269091967E-02 5.246127654E-02
 1.500000000E-01 -3.500000000E-01  4.216993044E-02-7.075369874E-02-1.667552637E-02 7.269222149E-02
 5.000000000E-02 -3.500000000E-01  1.779243841E-02-8.347988236E-02-5.449769199E-03 8.365758031E-02
-5.000000000E-02 -3.500000000E-01 -9.441062696E-03-8.269564532E-02 6.928017106E-03 8.298534314E-02
-1.500000000E-01 -3.500000000E-01 -3.194765823E-02-6.888911820E-02 1.719668562E-02 7.100307460E-02
-2.500000000E-01 -3.500000000E-01 -4.335493164E-02-4.552794518E-02 2.212818317E-02 5.062065075E-02
-3.500000000E-01 -3.500000000E-01 -3.878691778E-02-2.169259435E-02 1.858105745E-02 2.856263898E-02
-4.500000000E-01 -3.500000000E-01 -3.099257018E-02-2.389690677E-03 7.461553716E-03 7.834883879E-03
 4.500000000E-01 -4.500000000E-01  5.096050994E-02-5.020998919E-04-4.866968344E-04 6.992696977E-04
 3.500000000E-01 -4.500000000E-01  5.845179974E-02-7.684807783E-03-2.126395543E-03 7.973570635E-03
 2.500000000E-01 -4.500000000E-01  5.993780945E-02-1.817141923E-02-2.830899485E-03 1.839060817E-02
 1.500000000E-01 -4.500000000E-01  4.517199611E-02-2.878299622E-02-2.015866391E-03 2.885350219E-02
 5.000000000E-02 -4.500000000E-01  1.918911427E-02-3.466184765E-02-5.956524701E-04 3.466696532E-02
-5.000000000E-02 -4.500000000E-01 -1.004245174E-02-3.426961248E-02 9.145916368E-04 3.428181467E-02
-1.500000000E-01 -4.500000000E-01 -3.445578840E-02-2.787771205E-02 2.138277644E-03 2.795959693E-02
-2.500000000E-01 -4.500000000E-01 -4.752929585E-02-1.737625339E-02 2.746268247E-03 1.759193484E-02
-3.500000000E-01 -4.500000000E-01 -4.563367040E-02-7.351820411E-03 2.016015069E-03 7.623226359E-03
-4.500000000E-01 -4.500000000E-01 -3.865832079E-02-4.969220363E-04 4.937810899E-04 7.005364194E-04
