title = "result"
variables = x, y, p, u, v, magU
ZONE I = 10, J = 10, F = Point
